HEADER
"PSFversion" "1.00"
"design" "(\"\" \"inverter.scs\" \"schematic\" \"\")"
"simulator" "spectre"
"temperature" "27"
"host" ""
"date" "Jan 31 19:04:52 2026"
"title" ""
"analysisList" "()"
END
